; NVT Equilibration MDP file
; Temperature equilibration at 300K

define      = -DPOSRES      ; Position restraints on protein

integrator  = md            ; Leap-frog integrator
nsteps      = 50000         ; 100 ps (2 fs * 50000)
dt          = 0.002         ; 2 fs timestep

; Output control
nstxout     = 500           ; Coordinates every 1 ps
nstvout     = 500           ; Velocities every 1 ps
nstenergy   = 500           ; Energies every 1 ps
nstlog      = 500           ; Log every 1 ps

; Bond parameters
continuation    = no
constraint_algorithm = lincs
constraints     = h-bonds
lincs_iter      = 1
lincs_order     = 4

; Neighbor searching
cutoff-scheme   = Verlet
ns_type         = grid
nstlist         = 10
rcoulomb        = 1.0
rvdw            = 1.0

; Electrostatics
coulombtype     = PME
pme_order       = 4
fourierspacing  = 0.16

; Temperature coupling
tcoupl          = V-rescale
tc-grps         = Protein Non-Protein
tau_t           = 0.1     0.1
ref_t           = 300     300

; Pressure coupling
pcoupl          = no

; Periodic boundary conditions
pbc             = xyz

; Velocity generation
gen_vel         = yes
gen_temp        = 300
gen_seed        = -1
